REMARK  1 active torsions:
REMARK  status: ('A' for Active; 'I' for Inactive)
REMARK    1  A    between atoms: C1_1  and  C2_2 
ROOT
ATOM      1  C1  PPI F   1      -0.237  -0.653  -0.879  0.00  0.00     0.172 C 
ATOM      2  O1  PPI F   1       0.850  -0.960  -1.451  0.00  0.00    -0.648 OA
ATOM      3  O2  PPI F   1      -1.244  -1.450  -0.825  0.00  0.00    -0.648 OA
ENDROOT
BRANCH   1   4
ATOM      4  C2  PPI F   1      -0.376   0.743  -0.208  0.00  0.00     0.109 C 
ATOM      5  C3  PPI F   1      -1.450   0.850   0.851  0.00  0.00     0.016 C 
ENDBRANCH   1   4
TORSDOF 1
