REMARK  2 active torsions:
REMARK  status: ('A' for Active; 'I' for Inactive)
REMARK    1  A    between atoms: C_2  and  C_3 
REMARK    2  A    between atoms: C_3  and  C_4 
ROOT
ATOM      1  C   UNL d   1       0.352  -1.360  -0.431  0.00  0.00     0.113 C 
ENDROOT
BRANCH   1   2
ATOM      2  C   UNL d   1      -0.310  -1.466  -1.802  0.00  0.00     0.006 C 
ATOM      3  C   UNL d   1      -1.729  -0.916  -1.802  0.00  0.00     0.005 C 
ENDBRANCH   1   2
BRANCH   1   4
ATOM      4  C   UNL d   1       0.475   0.075   0.090  0.00  0.00     0.172 C 
ATOM      5  O   UNL d   1       1.129   0.866  -0.642  0.00  0.00    -0.648 OA
ATOM      6  O   UNL d   1      -0.094   0.281   1.202  0.00  0.00    -0.648 OA
ENDBRANCH   1   4
TORSDOF 2
