REMARK  1 active torsions:
REMARK  status: ('A' for Active; 'I' for Inactive)
REMARK    1  A    between atoms: C1_1  and  C2_2 
ROOT
ATOM      1  C1  PPI A   1      -0.129  -0.505  -0.945  0.00  0.00     0.172 C 
ATOM      2  O1  PPI A   1      -1.187  -0.046  -1.304  0.00  0.00    -0.648 OA
ATOM      3  O2  PPI A   1       0.587  -1.272  -1.782  0.00  0.00    -0.648 OA
ENDROOT
BRANCH   1   4
ATOM      4  C2  PPI A   1       0.385  -0.218   0.440  0.00  0.00     0.109 C 
ATOM      5  C3  PPI A   1      -0.613   0.672   1.182  0.00  0.00     0.016 C 
ENDBRANCH   1   4
TORSDOF 1
